
  ___ ___ ___ _ _ _  
 |   |   |_  | | | | 
 | | | | | . | | | | 
 |__ |  _|___|_____|  22.1.0
 |___|_|             

User:   johnseong@JOHN-MacBook.local
Date:   Tue May 31 13:03:11 2022
Arch:   arm64
Pid:    41918
Python: 3.10.0
gpaw:   /Users/johnseong/Documents/GitHub/ElectronVisualized/venv/lib/python3.10/site-packages/gpaw
_gpaw:  /Users/johnseong/Documents/GitHub/ElectronVisualized/venv/lib/python3.10/site-packages/
        _gpaw.cpython-310-darwin.so
ase:    /Users/johnseong/Documents/GitHub/ElectronVisualized/venv/lib/python3.10/site-packages/ase (version 3.22.1)
numpy:  /Users/johnseong/Documents/GitHub/ElectronVisualized/venv/lib/python3.10/site-packages/numpy (version 1.22.3)
scipy:  /Users/johnseong/Documents/GitHub/ElectronVisualized/venv/lib/python3.10/site-packages/scipy (version 1.8.1)
libxc:  5.2.3
units:  Angstrom and eV
cores: 1
OpenMP: False
OMP_NUM_THREADS: 1

Input parameters:
  h: 0.18
  maxiter: 3500
  occupations: {fixmagmom: False,
                name: fermi-dirac,
                width: 0.1}
  xc: PBE

System changes: positions, numbers, cell, pbc, initial_charges, initial_magmoms 

Initialize ...

H-setup:
  name: Hydrogen
  id: d65de229564ff8ea4db303e23b6d1ecf
  Z: 1.0
  valence: 1
  core: 0
  charge: 0.0
  file: /Users/johnseong/Documents/GitHub/ElectronVisualized/server/datasets/gpaw-setups-0.9.20000/H.PBE.gz
  compensation charges: gauss, rc=0.15, lmax=2
  cutoffs: 0.85(filt), 0.53(core),
  valence states:
                energy  radius
    1s(1.00)    -6.494   0.476
    *s          20.717   0.476
    *p           0.000   0.476

  Using partial waves for H as LCAO basis

Reference energy: -24.980324

Spin-paired calculation

Convergence criteria:
 Maximum [total energy] change in last 3 cyles: 0.0005 eV / electron
 Maximum integral of absolute [dens]ity change: 0.0001 electrons / valence electron
 Maximum integral of absolute [eigenst]ate change: 4e-08 eV^2 / valence electron
 Maximum number of scf [iter]ations: 3500
 (Square brackets indicate name in SCF output, whereas a 'c' in
 the SCF output indicates the quantity has converged.)

Symmetries present (total): 8

  ( 1  0  0)  ( 1  0  0)  ( 1  0  0)  ( 1  0  0)  (-1  0  0)  (-1  0  0)
  ( 0  1  0)  ( 0  1  0)  ( 0 -1  0)  ( 0 -1  0)  ( 0  1  0)  ( 0  1  0)
  ( 0  0  1)  ( 0  0 -1)  ( 0  0  1)  ( 0  0 -1)  ( 0  0  1)  ( 0  0 -1)

  (-1  0  0)  (-1  0  0)
  ( 0 -1  0)  ( 0 -1  0)
  ( 0  0  1)  ( 0  0 -1)

1 k-point (Gamma)
1 k-point in the irreducible part of the Brillouin zone
       k-points in crystal coordinates                weights
   0:     0.00000000    0.00000000    0.00000000          1/1

Wave functions: Uniform real-space grid
  Kinetic energy operator: 6*3+1=19 point O(h^6) finite-difference Laplacian
  ScaLapack parameters: grid=1x1, blocksize=None
  Wavefunction extrapolation:
    Improved wavefunction reuse through dual PAW basis 

Occupation numbers: Fermi-Dirac: width=0.1000 eV
 

Eigensolver
   Davidson(niter=2) 

Densities:
  Coarse grid: 28*28*28 grid
  Fine grid: 56*56*56 grid
  Total Charge: 0.000000 

Density mixing:
  Method: separate
  Backend: pulay
  Linear mixing parameter: 0.25
  Mixing with 3 old densities
  No damping of long wave oscillations 

Hamiltonian:
  XC and Coulomb potentials evaluated on a 56*56*56 grid
  Using the PBE Exchange-Correlation functional
  Interpolation: tri-quintic (5. degree polynomial)
  Poisson solver: FastPoissonSolver using
    Stencil: 6*3+1=19 point O(h^6) finite-difference Laplacian
    FFT axes: []
    FST axes: [0, 1, 2]
 

XC parameters: PBE with 2 nearest neighbor stencil

Memory estimate:
  Process memory now: 608.86 MiB
  Calculator: 9.79 MiB
    Density: 5.67 MiB
      Arrays: 4.11 MiB
      Localized functions: 0.66 MiB
      Mixer: 0.90 MiB
    Hamiltonian: 2.74 MiB
      Arrays: 2.69 MiB
      XC: 0.00 MiB
      Poisson: 0.00 MiB
      vbar: 0.05 MiB
    Wavefunctions: 1.38 MiB
      Arrays psit_nG: 0.30 MiB
      Eigensolver: 1.05 MiB
      Projections: 0.00 MiB
      Projectors: 0.03 MiB

Total number of cores used: 1

Number of atoms: 2
Number of atomic orbitals: 2
Number of bands in calculation: 2
Number of valence electrons: 2
Bands to converge: occupied

... initialized

Initializing position-dependent things.

Density initialized from atomic densities
Creating initial wave functions:
  2 bands from LCAO basis set

    .-----------.  
   /|           |  
  / |           |  
 *  |           |  
 |  |    H      |  
 |  |    H      |  
 |  .-----------.  
 | /           /   
 |/           /    
 *-----------*     

Positions:
   0 H      2.500000    2.550000    2.968583    ( 0.0000,  0.0000,  0.0000)
   1 H      2.500000    2.550000    2.231417    ( 0.0000,  0.0000,  0.0000)

Unit cell:
           periodic     x           y           z      points  spacing
  1. axis:    no     5.000000    0.000000    0.000000    28     0.1786
  2. axis:    no     0.000000    5.100000    0.000000    28     0.1821
  3. axis:    no     0.000000    0.000000    5.200000    28     0.1857

  Lengths:   5.000000   5.100000   5.200000
  Angles:   90.000000  90.000000  90.000000

Effective grid spacing dv^(1/3) = 0.1821

     iter     time        total  log10-change:
                         energy  eigst   dens
iter:   1 13:03:11    -7.314391
iter:   2 13:03:11    -7.039239  +0.30  -0.43
iter:   3 13:03:11    -6.739810  +0.72  -0.55
iter:   4 13:03:11    -6.685191  -0.18  -0.98
iter:   5 13:03:11    -6.686653  -0.60  -1.81
iter:   6 13:03:11    -6.686238  -1.89  -1.88
iter:   7 13:03:11    -6.686199c -3.62  -2.42
iter:   8 13:03:11    -6.686204c -3.50  -2.92
iter:   9 13:03:11    -6.686200c -4.56  -3.54
iter:  10 13:03:11    -6.686202c -4.97  -3.30
iter:  11 13:03:11    -6.686203c -5.34  -3.93
iter:  12 13:03:11    -6.686203c -6.80  -4.53c
iter:  13 13:03:11    -6.686204c -7.26  -4.73c
iter:  14 13:03:11    -6.686204c -7.52c -4.65c

Converged after 14 iterations.

Dipole moment: (-0.000000, -0.000000, -0.000000) |e|*Ang

Energy contributions relative to reference atoms: (reference = -24.980324)

Kinetic:         +7.307362
Potential:       -8.688898
External:        +0.000000
XC:              -5.285779
Entropy (-ST):   -0.000000
Local:           -0.018890
--------------------------
Free energy:     -6.686204
Extrapolated:    -6.686204

 Band  Eigenvalues  Occupancy
    0    -10.24320    2.00000
    1      2.32940    0.00000

Fermi level: -6.46346

Gap: 12.573 eV
Transition (v -> c):
  (s=0, k=0, n=0, [0.00, 0.00, 0.00]) -> (s=0, k=0, n=1, [0.00, 0.00, 0.00])
Timing:                              incl.     excl.
-----------------------------------------------------------
Hamiltonian:                         0.036     0.000   0.0% |
 Atomic:                             0.009     0.000   0.0% |
  XC Correction:                     0.008     0.008   0.7% |
 Calculate atomic Hamiltonians:      0.000     0.000   0.0% |
 Communicate:                        0.000     0.000   0.0% |
 Hartree integrate/restrict:         0.001     0.001   0.1% |
 Initialize Hamiltonian:             0.000     0.000   0.0% |
 Poisson:                            0.009     0.000   0.0% |
  Communicate from 1D:               0.001     0.001   0.1% |
  Communicate from 2D:               0.001     0.001   0.0% |
  Communicate to 1D:                 0.001     0.001   0.1% |
  Communicate to 2D:                 0.001     0.001   0.1% |
  FFT 1D:                            0.002     0.002   0.1% |
  FFT 2D:                            0.004     0.004   0.3% |
 XC 3D grid:                         0.017     0.017   1.4% ||
 vbar:                               0.001     0.001   0.0% |
LCAO initialization:                 0.004     0.002   0.2% |
 LCAO eigensolver:                   0.000     0.000   0.0% |
  Calculate projections:             0.000     0.000   0.0% |
  DenseAtomicCorrection:             0.000     0.000   0.0% |
  Distribute overlap matrix:         0.000     0.000   0.0% |
  Orbital Layouts:                   0.000     0.000   0.0% |
  Potential matrix:                  0.000     0.000   0.0% |
 LCAO to grid:                       0.000     0.000   0.0% |
 Set positions (LCAO WFS):           0.001     0.000   0.0% |
  Basic WFS set positions:           0.000     0.000   0.0% |
  Basis functions set positions:     0.000     0.000   0.0% |
  P tci:                             0.001     0.001   0.0% |
  ST tci:                            0.000     0.000   0.0% |
  mktci:                             0.000     0.000   0.0% |
SCF-cycle:                           0.539     0.003   0.3% |
 Davidson:                           0.056     0.020   1.7% ||
  Apply hamiltonian:                 0.005     0.005   0.4% |
  Subspace diag:                     0.009     0.000   0.0% |
   calc_h_matrix:                    0.007     0.002   0.1% |
    Apply hamiltonian:               0.006     0.006   0.5% |
   diagonalize:                      0.001     0.001   0.1% |
   rotate_psi:                       0.001     0.001   0.1% |
  calc. matrices:                    0.019     0.009   0.8% |
   Apply hamiltonian:                0.010     0.010   0.8% |
  diagonalize:                       0.001     0.001   0.1% |
  rotate_psi:                        0.001     0.001   0.1% |
 Density:                            0.025     0.000   0.0% |
  Atomic density matrices:           0.002     0.002   0.2% |
  Mix:                               0.013     0.013   1.1% |
  Multipole moments:                 0.000     0.000   0.0% |
  Pseudo density:                    0.009     0.001   0.1% |
   Symmetrize density:               0.009     0.009   0.7% |
 Hamiltonian:                        0.454     0.000   0.0% |
  Atomic:                            0.117     0.002   0.2% |
   XC Correction:                    0.115     0.115   9.5% |---|
  Calculate atomic Hamiltonians:     0.003     0.003   0.2% |
  Communicate:                       0.000     0.000   0.0% |
  Hartree integrate/restrict:        0.014     0.014   1.1% |
  Poisson:                           0.109     0.005   0.4% |
   Communicate from 1D:              0.009     0.009   0.7% |
   Communicate from 2D:              0.009     0.009   0.8% |
   Communicate to 1D:                0.011     0.011   0.9% |
   Communicate to 2D:                0.009     0.009   0.8% |
   FFT 1D:                           0.022     0.022   1.8% ||
   FFT 2D:                           0.044     0.044   3.6% ||
  XC 3D grid:                        0.207     0.207  17.1% |------|
  vbar:                              0.004     0.004   0.3% |
 Orthonormalize:                     0.000     0.000   0.0% |
  calc_s_matrix:                     0.000     0.000   0.0% |
  inverse-cholesky:                  0.000     0.000   0.0% |
  projections:                       0.000     0.000   0.0% |
  rotate_psi_s:                      0.000     0.000   0.0% |
Set symmetry:                        0.001     0.001   0.1% |
Other:                               0.629     0.629  52.0% |--------------------|
-----------------------------------------------------------
Total:                                         1.209 100.0%

Memory usage: 608.86 MiB
Date: Tue May 31 13:03:12 2022
